#

144 atoms
3 atom types

0.0 21.08901688 xlo xhi
0.0 19.87340246 ylo yhi
0.0 8.11716638 zlo zhi

0.00000000 -0.00000000 0.00000000 xy xz yz

Atom Type Labels

1 Al
2 Ga
3 As


Atoms

1 Al -0.00000000 19.87111702 4.05858319
2 Al 1.17161205 13.24664953 2.02929159
3 Al 2.34322410 6.62218205 4.05858319
4 Al 3.51483615 19.87111702 2.02929159
5 Al 4.68644819 13.24664953 4.05858319
6 Al 5.85806024 6.62218205 2.02929159
7 Al 7.02967229 19.87111702 4.05858319
8 Al 8.20128434 13.24664953 2.02929159
9 Al 9.37289639 6.62218205 4.05858319
10 Al 10.54450844 19.87111702 2.02929159
11 Al 11.71612049 13.24664953 4.05858319
12 Al 12.88773254 6.62218205 2.02929159
13 Al 14.05934458 19.87111702 4.05858319
14 Al 15.23095663 13.24664953 2.02929159
15 Al 16.40256868 6.62218205 4.05858319
16 Al 17.57418073 19.87111702 2.02929159
17 Al 18.74579278 13.24664953 4.05858319
18 Al 19.91740483 6.62218205 2.02929159
19 Al -0.00000000 19.87111702 8.11716638
20 Al 1.17161205 13.24664953 6.08787479
21 Al 2.34322410 6.62218205 8.11716638
22 Al 3.51483615 19.87111702 6.08787479
23 Al 4.68644819 13.24664953 8.11716638
24 Al 5.85806024 6.62218205 6.08787478
25 Al 7.02967229 19.87111702 8.11716638
26 Al 8.20128434 13.24664953 6.08787478
27 Al 9.37289639 6.62218205 8.11716638
28 Al 10.54450844 19.87111702 6.08787478
29 Al 11.71612049 13.24664953 8.11716638
30 Al 12.88773254 6.62218205 6.08787478
31 Al 14.05934458 19.87111702 8.11716638
32 Al 15.23095663 13.24664953 6.08787478
33 Al 16.40256868 6.62218205 8.11716638
34 Al 17.57418073 19.87111702 6.08787478
35 Al 18.74579278 13.24664953 8.11716638
36 Al 19.91740483 6.62218205 6.08787478
37 Ga -0.00000000 9.93803275 4.05858319
38 Ga 1.17161205 3.31356526 2.02929159
39 Ga 2.34322410 16.56250023 4.05858319
40 Ga 3.51483615 9.93803275 2.02929159
41 Ga 4.68644819 3.31356526 4.05858319
42 Ga 5.85806024 16.56250023 2.02929159
43 Ga 7.02967229 9.93803275 4.05858319
44 Ga 8.20128434 3.31356526 2.02929159
45 Ga 9.37289639 16.56250023 4.05858319
46 Ga 10.54450844 9.93803275 2.02929159
47 Ga 11.71612049 3.31356526 4.05858319
48 Ga 12.88773254 16.56250023 2.02929159
49 Ga 14.05934458 9.93803275 4.05858319
50 Ga 15.23095663 3.31356526 2.02929159
51 Ga 16.40256868 16.56250023 4.05858319
52 Ga 17.57418073 9.93803275 2.02929159
53 Ga 18.74579278 3.31356526 4.05858319
54 Ga 19.91740483 16.56250023 2.02929159
55 Ga -0.00000000 9.93803275 8.11716638
56 Ga 1.17161205 3.31356526 6.08787479
57 Ga 2.34322410 16.56250023 8.11716638
58 Ga 3.51483615 9.93803275 6.08787479
59 Ga 4.68644819 3.31356526 8.11716638
60 Ga 5.85806024 16.56250023 6.08787478
61 Ga 7.02967229 9.93803275 8.11716638
62 Ga 8.20128434 3.31356526 6.08787478
63 Ga 9.37289639 16.56250023 8.11716638
64 Ga 10.54450844 9.93803275 6.08787478
65 Ga 11.71612049 3.31356526 8.11716638
66 Ga 12.88773254 16.56250023 6.08787478
67 Ga 14.05934458 9.93803275 8.11716638
68 Ga 15.23095663 3.31356526 6.08787478
69 Ga 16.40256868 16.56250023 8.11716638
70 Ga 17.57418073 9.93803275 6.08787478
71 Ga 18.74579278 3.31356526 8.11716638
72 Ga 19.91740483 16.56250023 6.08787478
73 As -0.00000000 2.48014101 4.05858319
74 As -0.00000000 12.42588463 4.05858319
75 As 1.17161205 5.80141715 2.02929159
76 As 1.17161205 15.72907598 2.02929159
77 As 2.34322410 9.10460849 4.05858319
78 As 2.34322410 19.05035212 4.05858319
79 As 3.51483615 2.48014101 2.02929159
80 As 3.51483615 12.42588463 2.02929159
81 As 4.68644819 5.80141715 4.05858319
82 As 4.68644819 15.72907598 4.05858319
83 As 5.85806024 9.10460849 2.02929159
84 As 5.85806024 19.05035212 2.02929159
85 As 7.02967229 2.48014101 4.05858319
86 As 7.02967229 12.42588463 4.05858319
87 As 8.20128434 5.80141715 2.02929159
88 As 8.20128434 15.72907598 2.02929159
89 As 9.37289639 9.10460849 4.05858319
90 As 9.37289639 19.05035212 4.05858319
91 As 10.54450844 2.48014101 2.02929159
92 As 10.54450844 12.42588463 2.02929159
93 As 11.71612049 5.80141715 4.05858319
94 As 11.71612049 15.72907598 4.05858319
95 As 12.88773254 9.10460849 2.02929159
96 As 12.88773254 19.05035212 2.02929159
97 As 14.05934458 2.48014101 4.05858319
98 As 14.05934458 12.42588463 4.05858319
99 As 15.23095663 5.80141715 2.02929159
100 As 15.23095663 15.72907598 2.02929159
101 As 16.40256868 9.10460849 4.05858319
102 As 16.40256868 19.05035212 4.05858319
103 As 17.57418073 2.48014101 2.02929159
104 As 17.57418073 12.42588463 2.02929159
105 As 18.74579278 5.80141715 4.05858319
106 As 18.74579278 15.72907598 4.05858319
107 As 19.91740483 9.10460849 2.02929159
108 As 19.91740483 19.05035212 2.02929159
109 As -0.00000000 2.48014101 8.11716638
110 As -0.00000000 12.42588463 8.11716638
111 As 1.17161205 5.80141715 6.08787479
112 As 1.17161205 15.72907598 6.08787479
113 As 2.34322410 9.10460849 8.11716638
114 As 2.34322410 19.05035212 8.11716638
115 As 3.51483615 2.48014101 6.08787479
116 As 3.51483615 12.42588463 6.08787479
117 As 4.68644819 5.80141715 8.11716638
118 As 4.68644819 15.72907598 8.11716638
119 As 5.85806024 9.10460849 6.08787478
120 As 5.85806024 19.05035212 6.08787478
121 As 7.02967229 2.48014101 8.11716638
122 As 7.02967229 12.42588463 8.11716638
123 As 8.20128434 5.80141715 6.08787478
124 As 8.20128434 15.72907598 6.08787478
125 As 9.37289639 9.10460849 8.11716638
126 As 9.37289639 19.05035212 8.11716638
127 As 10.54450844 2.48014101 6.08787478
128 As 10.54450844 12.42588463 6.08787478
129 As 11.71612049 5.80141715 8.11716638
130 As 11.71612049 15.72907598 8.11716638
131 As 12.88773254 9.10460849 6.08787478
132 As 12.88773254 19.05035212 6.08787478
133 As 14.05934458 2.48014101 8.11716638
134 As 14.05934458 12.42588463 8.11716638
135 As 15.23095663 5.80141715 6.08787478
136 As 15.23095663 15.72907598 6.08787478
137 As 16.40256868 9.10460849 8.11716638
138 As 16.40256868 19.05035212 8.11716638
139 As 17.57418073 2.48014101 6.08787478
140 As 17.57418073 12.42588463 6.08787478
141 As 18.74579278 5.80141715 8.11716638
142 As 18.74579278 15.72907598 8.11716638
143 As 19.91740483 9.10460849 6.08787478
144 As 19.91740483 19.05035212 6.08787478
